                         Program Version 4.2.1 -  RELEASE  -
|  1> # ================================================================
|  2> # Orca input file made in Gabedit
|  3> # ================================================================
|  4> ! CAM-B3LYP 6-31G*
|  5>
|  6> %geom scan
|  7>
|  8> D 29 3 23 1 = -180, 180, 18
|  9> D 30 2 31 19 = -180, 180 , 18
| 10> # 29 3 23 16 = -180, 180, 18
| 11> # 30 2 31 7 = -180, 180, 18
| 12>
| 13> # Scan the  dihedral from -180 to 180 in 18 steps
| 14>
| 15> end
| 16> end
| 17> * xyz 0   1
| 18> C          5.40600        5.09700        6.71000
| 19> C          8.11400        2.78900        8.59600
| 20> C          7.49600        6.18800        6.17300
| 21> C          8.84600        2.52200       12.01400
| 22> C          4.90000        2.81900        5.83700
| 23> C          8.60700        8.38400        4.37800
| 24> C          5.65800        3.03500        8.19800
| 25> C          8.05200        5.01500        9.70200
| 26> C          8.49800       10.72300        3.66100
| 27> C          4.89300        3.70300        7.08000
| 28> C          8.82700        6.19400        5.39400
| 29> C          7.98100        3.50400        9.93400
| 30> C          9.87200        5.40600        6.19300
| 31> C         11.15100        5.08300        5.42700
| 32> C          6.35400        2.68400        5.42400
| 33> C          6.91300        4.04400        5.03300
| 34> C         10.10800        1.44200       13.84100
| 35> C          7.70700        5.88000       10.89900
| 36> C          7.15100        2.00000        6.52500
| 37> C          6.25800        5.78100       11.26600
| 38> C          9.37600       11.89700        4.01500
| 39> C          8.08000        7.32300       10.56200
| 40> N          6.71900        5.06200        6.07000
| 41> N          9.06100        3.06300       10.81100
| 42> O          7.67100        8.04200        3.70800
| 43> O         10.00000        2.03000       12.50000
| 44> C          9.19900        0.25000       13.97200
| 45> O          9.15400        9.61200        4.38500
| 46> O          7.17700        7.11900        6.88800
| 47> O          9.22500        2.38900        8.24200
| 48> N          7.03800        2.68800        7.80800
| 49> N          9.28200        7.56600        5.20300
| 50> O          7.78600        2.49900       12.58900
| 51> C          7.11200       10.92800        4.16300
| 52> C         12.12200        4.38800        6.36800
| 53> C         10.90000        4.20000        4.25700
| 54> C          8.56900       10.44900        2.17700
| 55> C         11.50800        1.01200       13.92200
| 56> C          9.89700        2.56100       14.83900
| 57> H          9.08100       12.67300        3.53300
| 58> H         10.28500       11.69900        3.77800
| 59> H          7.83500        7.89600       11.29100
| 60> H          7.61400        7.59700        9.76900
| 61> H          9.98000        7.85000        5.61800
| 62> H          4.52100        1.94800        6.03700
| 63> H          4.38100        3.22700        5.12600
| 64> H          5.68500        3.63000        8.96500
| 65> H          5.19100        2.22800        8.46600
| 66> H          9.87200        3.15600       10.54000
| 67> H          8.95100        5.23600        9.41300
| 68> H          7.45000        5.24100        8.97700
| 69> H          4.77100        5.52000        6.11000
| 70> H          5.45900        5.63900        7.51400
| 71> H         10.10600        5.91700        6.98400
| 72> H          9.47100        4.57500        6.49100
| 73> H          6.57300       10.16800        3.93100
| 74> H          7.86100        3.95500        4.85000
| 75> H          6.74000       11.71700        3.76200
| 76> H          3.96100        3.79800        7.37200
| 77> H          7.12800       11.03000        5.11700
| 78> H          8.69600        5.77000        4.52000
| 79> H         12.13500        4.84700        7.21100
| 80> H          7.11800        3.27800       10.34000
| 81> H         13.00200        4.39800        5.98500
| 82> H          6.48100        4.34000        4.21500
| 83> H         11.84200        3.48000        6.50300
| 84> H          6.83600        1.08800        6.62500
| 85> H         10.49300        3.38400        4.55300
| 86> H         11.55500        5.91900        5.11500
| 87> H         11.73200        4.00400        3.82000
| 88> H          6.38600        2.10900        4.63100
| 89> H         10.31300        4.64600        3.64100
| 90> H          8.08500        1.96400        6.26500
| 91> H          9.48600       10.34800        1.91300
| 92> H          5.72000        6.05700       10.52100
| 93> H          8.17800       11.18300        1.69700
| 94> H          8.24500        5.58700       11.66400
| 95> H          8.08700        9.64300        1.97700
| 96> H          6.07900        6.35100       12.01800
| 97> H         11.60700        0.16400       13.48400
| 98> H          6.04700        4.87400       11.49500
| 99> H         11.76400        0.92900       14.84300
|100> H          9.32000       12.06500        4.95900
|101> H         12.06800        1.66200       13.49100
|102> H          9.02700        7.38200       10.41300
|103> H         10.39300        3.33500       14.56200
|104> H         10.20200        2.27900       15.70500
|105> H          8.96300        2.77900       14.88400
|106> H          8.29000        0.54800       14.05700
|107> H          9.44300       -0.25500       14.75200
|108> H          9.28200       -0.30400       13.19300
|109> *
|110>
|111>                          ****END OF INPUT****

CARTESIAN COORDINATES (ANGSTROEM)
---------------------------------
  C      5.406000    5.097000    6.710000
  C      8.114000    2.789000    8.596000
  C      7.496000    6.188000    6.173000
  C      8.846000    2.522000   12.014000
  C      4.900000    2.819000    5.837000
  C      8.607000    8.384000    4.378000
  C      5.658000    3.035000    8.198000
  C      8.052000    5.015000    9.702000
  C      8.498000   10.723000    3.661000
  C      4.893000    3.703000    7.080000
  C      8.827000    6.194000    5.394000
  C      7.981000    3.504000    9.934000
  C      9.872000    5.406000    6.193000
  C     11.151000    5.083000    5.427000
  C      6.354000    2.684000    5.424000
  C      6.913000    4.044000    5.033000
  C     10.108000    1.442000   13.841000
  C      7.707000    5.880000   10.899000
  C      7.151000    2.000000    6.525000
  C      6.258000    5.781000   11.266000
  C      9.376000   11.897000    4.015000
  C      8.080000    7.323000   10.562000
  N      6.719000    5.062000    6.070000
  N      9.061000    3.063000   10.811000
  O      7.671000    8.042000    3.708000
  O     10.000000    2.030000   12.500000
  C      9.199000    0.250000   13.972000
  O      9.154000    9.612000    4.385000
  O      7.177000    7.119000    6.888000
  O      9.225000    2.389000    8.242000
  N      7.038000    2.688000    7.808000
  N      9.282000    7.566000    5.203000
  O      7.786000    2.499000   12.589000
  C      7.112000   10.928000    4.163000
  C     12.122000    4.388000    6.368000
  C     10.900000    4.200000    4.257000
  C      8.569000   10.449000    2.177000
  C     11.508000    1.012000   13.922000
  C      9.897000    2.561000   14.839000
  H      9.081000   12.673000    3.533000
  H     10.285000   11.699000    3.778000
  H      7.835000    7.896000   11.291000
  H      7.614000    7.597000    9.769000
  H      9.980000    7.850000    5.618000
  H      4.521000    1.948000    6.037000
  H      4.381000    3.227000    5.126000
  H      5.685000    3.630000    8.965000
  H      5.191000    2.228000    8.466000
  H      9.872000    3.156000   10.540000
  H      8.951000    5.236000    9.413000
  H      7.450000    5.241000    8.977000
  H      4.771000    5.520000    6.110000
  H      5.459000    5.639000    7.514000
  H     10.106000    5.917000    6.984000
  H      9.471000    4.575000    6.491000
  H      6.573000   10.168000    3.931000
  H      7.861000    3.955000    4.850000
  H      6.740000   11.717000    3.762000
  H      3.961000    3.798000    7.372000
  H      7.128000   11.030000    5.117000
  H      8.696000    5.770000    4.520000
  H     12.135000    4.847000    7.211000
  H      7.118000    3.278000   10.340000
  H     13.002000    4.398000    5.985000
  H      6.481000    4.340000    4.215000
  H     11.842000    3.480000    6.503000
  H      6.836000    1.088000    6.625000
  H     10.493000    3.384000    4.553000
  H     11.555000    5.919000    5.115000
  H     11.732000    4.004000    3.820000
  H      6.386000    2.109000    4.631000
  H     10.313000    4.646000    3.641000
  H      8.085000    1.964000    6.265000
  H      9.486000   10.348000    1.913000
  H      5.720000    6.057000   10.521000
  H      8.178000   11.183000    1.697000
  H      8.245000    5.587000   11.664000
  H      8.087000    9.643000    1.977000
  H      6.079000    6.351000   12.018000
  H     11.607000    0.164000   13.484000
  H      6.047000    4.874000   11.495000
  H     11.764000    0.929000   14.843000
  H      9.320000   12.065000    4.959000
  H     12.068000    1.662000   13.491000
  H      9.027000    7.382000   10.413000
  H     10.393000    3.335000   14.562000
  H     10.202000    2.279000   15.705000
  H      8.963000    2.779000   14.884000
  H      8.290000    0.548000   14.057000
  H      9.443000   -0.255000   14.752000
  H      9.282000   -0.304000   13.193000

 Total Charge           Charge          ....    0
 Multiplicity           Mult            ....    1
 Number of Electrons    NEL             ....  302
 Basis Dimension        Dim             ....  650

ORBITAL ENERGIES
----------------

  NO   OCC          E(Eh)            E(eV)
   0   2.0000     -19.228186      -523.2255
   1   2.0000     -19.225903      -523.1634
   2   2.0000     -19.172872      -521.7204
   3   2.0000     -19.171666      -521.6876
   4   2.0000     -19.170684      -521.6608
   5   2.0000     -19.167845      -521.5836
   6   2.0000     -14.431460      -392.7000
   7   2.0000     -14.422693      -392.4614
   8   2.0000     -14.397835      -391.7850
   9   2.0000     -14.394702      -391.6998
  10   2.0000     -10.385689      -282.6090
  11   2.0000     -10.385536      -282.6048
  12   2.0000     -10.348127      -281.5868
  13   2.0000     -10.345817      -281.5240
  14   2.0000     -10.301854      -280.3277
  15   2.0000     -10.300125      -280.2807
  16   2.0000     -10.282938      -279.8130
  17   2.0000     -10.280161      -279.7374
  18   2.0000     -10.274735      -279.5897
  19   2.0000     -10.269135      -279.4374
  20   2.0000     -10.262529      -279.2576
  21   2.0000     -10.259085      -279.1639
  22   2.0000     -10.257239      -279.1137
  23   2.0000     -10.257013      -279.1075
  24   2.0000     -10.233958      -278.4802
  25   2.0000     -10.230694      -278.3913
  26   2.0000     -10.223069      -278.1839
  27   2.0000     -10.219519      -278.0872
  28   2.0000     -10.212597      -277.8989
  29   2.0000     -10.190788      -277.3054
  30   2.0000     -10.189371      -277.2669
  31   2.0000     -10.185817      -277.1702
  32   2.0000     -10.185647      -277.1655
  33   2.0000     -10.185499      -277.1615
  34   2.0000     -10.185308      -277.1563
  35   2.0000     -10.183641      -277.1109
  36   2.0000     -10.181996      -277.0662
  37   2.0000     -10.179473      -276.9975
  38   2.0000     -10.176371      -276.9131
  39   2.0000      -1.169183       -31.8151
  40   2.0000      -1.167347       -31.7651
  41   2.0000      -1.113207       -30.2919
  42   2.0000      -1.110735       -30.2246
  43   2.0000      -1.075954       -29.2782
  44   2.0000      -1.073106       -29.2007
  45   2.0000      -1.035915       -28.1887
  46   2.0000      -1.016660       -27.6647
  47   2.0000      -1.014363       -27.6022
  48   2.0000      -1.009745       -27.4766
  49   2.0000      -0.923933       -25.1415
  50   2.0000      -0.918374       -24.9902
  51   2.0000      -0.912807       -24.8387
  52   2.0000      -0.904054       -24.6006
  53   2.0000      -0.900488       -24.5035
  54   2.0000      -0.899920       -24.4881
  55   2.0000      -0.847976       -23.0746
  56   2.0000      -0.844585       -22.9823
  57   2.0000      -0.822201       -22.3732
  58   2.0000      -0.803840       -21.8736
  59   2.0000      -0.801050       -21.7977
  60   2.0000      -0.799840       -21.7647
  61   2.0000      -0.799532       -21.7564
  62   2.0000      -0.798348       -21.7242
  63   2.0000      -0.791935       -21.5497
  64   2.0000      -0.787782       -21.4366
  65   2.0000      -0.783874       -21.3303
  66   2.0000      -0.750096       -20.4112
  67   2.0000      -0.747440       -20.3389
  68   2.0000      -0.723182       -19.6788
  69   2.0000      -0.709476       -19.3058
  70   2.0000      -0.702616       -19.1192
  71   2.0000      -0.676995       -18.4220
  72   2.0000      -0.669247       -18.2111
  73   2.0000      -0.665346       -18.1050
  74   2.0000      -0.650097       -17.6900
  75   2.0000      -0.648292       -17.6409
  76   2.0000      -0.646721       -17.5982
  77   2.0000      -0.628565       -17.1041
  78   2.0000      -0.595306       -16.1991
  79   2.0000      -0.590089       -16.0571
  80   2.0000      -0.587063       -15.9748
  81   2.0000      -0.581741       -15.8300
  82   2.0000      -0.576058       -15.6753
  83   2.0000      -0.570547       -15.5254
  84   2.0000      -0.565181       -15.3793
  85   2.0000      -0.556806       -15.1515
  86   2.0000      -0.551876       -15.0173
  87   2.0000      -0.551109       -14.9964
  88   2.0000      -0.548865       -14.9354
  89   2.0000      -0.544425       -14.8146
  90   2.0000      -0.541676       -14.7398
  91   2.0000      -0.541052       -14.7228
  92   2.0000      -0.535381       -14.5685
  93   2.0000      -0.533702       -14.5228
  94   2.0000      -0.530116       -14.4252
  95   2.0000      -0.524206       -14.2644
  96   2.0000      -0.520745       -14.1702
  97   2.0000      -0.518324       -14.1043
  98   2.0000      -0.515643       -14.0314
  99   2.0000      -0.514553       -14.0017
 100   2.0000      -0.510187       -13.8829
 101   2.0000      -0.508403       -13.8343
 102   2.0000      -0.503393       -13.6980
 103   2.0000      -0.497262       -13.5312
 104   2.0000      -0.494603       -13.4588
 105   2.0000      -0.486703       -13.2438
 106   2.0000      -0.483433       -13.1549
 107   2.0000      -0.481448       -13.1009
 108   2.0000      -0.479234       -13.0406
 109   2.0000      -0.478183       -13.0120
 110   2.0000      -0.476854       -12.9759
 111   2.0000      -0.474458       -12.9107
 112   2.0000      -0.470853       -12.8125
 113   2.0000      -0.468379       -12.7453
 114   2.0000      -0.467339       -12.7169
 115   2.0000      -0.461046       -12.5457
 116   2.0000      -0.460392       -12.5279
 117   2.0000      -0.458055       -12.4643
 118   2.0000      -0.452944       -12.3252
 119   2.0000      -0.451719       -12.2919
 120   2.0000      -0.450702       -12.2642
 121   2.0000      -0.448522       -12.2049
 122   2.0000      -0.446300       -12.1444
 123   2.0000      -0.436956       -11.8902
 124   2.0000      -0.430907       -11.7256
 125   2.0000      -0.426878       -11.6159
 126   2.0000      -0.416371       -11.3300
 127   2.0000      -0.413438       -11.2502
 128   2.0000      -0.413115       -11.2414
 129   2.0000      -0.410754       -11.1772
 130   2.0000      -0.409354       -11.1391
 131   2.0000      -0.402561       -10.9542
 132   2.0000      -0.398501       -10.8438
 133   2.0000      -0.392825       -10.6893
 134   2.0000      -0.390066       -10.6142
 135   2.0000      -0.386536       -10.5182
 136   2.0000      -0.385356       -10.4861
 137   2.0000      -0.382457       -10.4072
 138   2.0000      -0.381217       -10.3734
 139   2.0000      -0.378410       -10.2970
 140   2.0000      -0.373247       -10.1566
 141   2.0000      -0.339935        -9.2501
 142   2.0000      -0.337728        -9.1901
 143   2.0000      -0.321853        -8.7581
 144   2.0000      -0.320100        -8.7104
 145   2.0000      -0.317528        -8.6404
 146   2.0000      -0.315256        -8.5786
 147   2.0000      -0.307768        -8.3748
 148   2.0000      -0.300630        -8.1806
 149   2.0000      -0.298112        -8.1120
 150   2.0000      -0.280157        -7.6235
 151   0.0000       0.079799         2.1715
 152   0.0000       0.092491         2.5168
 153   0.0000       0.116919         3.1815
 154   0.0000       0.130814         3.5596
 155   0.0000       0.133004         3.6192

MULLIKEN ATOMIC CHARGES
-----------------------
   0 C :   -0.111798
   1 C :    0.526808
   2 C :    0.534511
   3 C :    0.684196
   4 C :   -0.272078
   5 C :    0.715533
   6 C :   -0.128949
   7 C :   -0.267079
   8 C :    0.220550
   9 C :   -0.158453
  10 C :   -0.048578
  11 C :   -0.078618
  12 C :   -0.312459
  13 C :   -0.127568
  14 C :   -0.163989
  15 C :   -0.121147
  16 C :    0.237079
  17 C :   -0.121721
  18 C :   -0.112383
  19 C :   -0.458911
  20 C :   -0.437698
  21 C :   -0.454833
  22 N :   -0.460590
  23 N :   -0.535284
  24 O :   -0.481187
  25 O :   -0.517619
  26 C :   -0.453363
  27 O :   -0.523051
  28 O :   -0.477338
  29 O :   -0.509727
  30 N :   -0.431440
  31 N :   -0.559831
  32 O :   -0.484935
  33 C :   -0.452090
  34 C :   -0.441854
  35 C :   -0.450093
  36 C :   -0.446378
  37 C :   -0.440900
  38 C :   -0.450963
  39 H :    0.149710
  40 H :    0.158683
  41 H :    0.145991
  42 H :    0.177704
  43 H :    0.308082
  44 H :    0.146319
  45 H :    0.152053
  46 H :    0.172628
  47 H :    0.166321
  48 H :    0.312154
  49 H :    0.141856
  50 H :    0.164713
  51 H :    0.163716
  52 H :    0.182109
  53 H :    0.156413
  54 H :    0.177753
  55 H :    0.190868
  56 H :    0.165934
  57 H :    0.147166
  58 H :    0.144046
  59 H :    0.163740
  60 H :    0.163232
  61 H :    0.145498
  62 H :    0.168832
  63 H :    0.149896
  64 H :    0.168510
  65 H :    0.171102
  66 H :    0.157972
  67 H :    0.153886
  68 H :    0.127419
  69 H :    0.154931
  70 H :    0.144227
  71 H :    0.155237
  72 H :    0.184347
  73 H :    0.150471
  74 H :    0.145898
  75 H :    0.145703
  76 H :    0.137200
  77 H :    0.187991
  78 H :    0.152853
  79 H :    0.155517
  80 H :    0.166535
  81 H :    0.151720
  82 H :    0.160428
  83 H :    0.165300
  84 H :    0.143263
  85 H :    0.157250
  86 H :    0.144982
  87 H :    0.180855
  88 H :    0.186250
  89 H :    0.148490
  90 H :    0.160475
Sum of atomic charges:   -0.0000000

LOEWDIN ATOMIC CHARGES
----------------------
   0 C :   -0.168271
   1 C :    0.104518
   2 C :    0.112422
   3 C :    0.121250
   4 C :   -0.255087
   5 C :    0.129729
   6 C :   -0.169686
   7 C :   -0.251878
   8 C :    0.111010
   9 C :   -0.137782
  10 C :   -0.083734
  11 C :   -0.083323
  12 C :   -0.254156
  13 C :   -0.129875
  14 C :   -0.138450
  15 C :   -0.172828
  16 C :    0.104449
  17 C :   -0.124810
  18 C :   -0.167943
  19 C :   -0.406790
  20 C :   -0.396847
  21 C :   -0.403158
  22 N :   -0.089993
  23 N :   -0.179487
  24 O :   -0.284788
  25 O :   -0.172096
  26 C :   -0.405094
  27 O :   -0.174698
  28 O :   -0.273144
  29 O :   -0.309211
  30 N :   -0.064394
  31 N :   -0.191251
  32 O :   -0.295915
  33 C :   -0.406468
  34 C :   -0.398572
  35 C :   -0.403212
  36 C :   -0.406847
  37 C :   -0.395997
  38 C :   -0.404937
  39 H :    0.140266
  40 H :    0.141939
  41 H :    0.135039
  42 H :    0.145929
  43 H :    0.236412
  44 H :    0.134192
  45 H :    0.136545
  46 H :    0.145233
  47 H :    0.137856
  48 H :    0.239130
  49 H :    0.136654
  50 H :    0.139549
  51 H :    0.137160
  52 H :    0.148414
  53 H :    0.139406
  54 H :    0.145562
  55 H :    0.153606
  56 H :    0.141577
  57 H :    0.141871
  58 H :    0.142063
  59 H :    0.145446
  60 H :    0.141033
  61 H :    0.135263
  62 H :    0.148518
  63 H :    0.136927
  64 H :    0.137150
  65 H :    0.144697
  66 H :    0.136242
  67 H :    0.136316
  68 H :    0.123993
  69 H :    0.140820
  70 H :    0.141653
  71 H :    0.135016
  72 H :    0.151738
  73 H :    0.139443
  74 H :    0.132756
  75 H :    0.140067
  76 H :    0.128883
  77 H :    0.151917
  78 H :    0.140068
  79 H :    0.140688
  80 H :    0.139446
  81 H :    0.141775
  82 H :    0.142211
  83 H :    0.146291
  84 H :    0.134032
  85 H :    0.143147
  86 H :    0.138269
  87 H :    0.148680
  88 H :    0.150655
  89 H :    0.140784
  90 H :    0.145014

  Mayer bond orders larger than 0.100000
B(  0-C ,  9-C ) :   1.0197 B(  0-C , 22-N ) :   0.9533 B(  0-C , 51-H ) :   0.9374
B(  0-C , 52-H ) :   0.9235 B(  1-C , 11-C ) :   0.9433 B(  1-C , 29-O ) :   1.7938
B(  1-C , 30-N ) :   1.1625 B(  2-C , 10-C ) :   0.9245 B(  2-C , 22-N ) :   1.1089
B(  2-C , 28-O ) :   1.8420 B(  3-C , 23-N ) :   1.1494 B(  3-C , 25-O ) :   1.0495
B(  3-C , 32-O ) :   1.8337 B(  4-C ,  9-C ) :   1.0238 B(  4-C , 14-C ) :   1.0263
B(  4-C , 44-H ) :   0.9417 B(  4-C , 45-H ) :   0.9412 B(  5-C , 24-O ) :   1.8187
B(  5-C , 27-O ) :   1.0582 B(  5-C , 31-N ) :   1.1306 B(  6-C ,  9-C ) :   1.0227
B(  6-C , 30-N ) :   0.9562 B(  6-C , 46-H ) :   0.9274 B(  6-C , 47-H ) :   0.9348
B(  7-C , 11-C ) :   0.9983 B(  7-C , 17-C ) :   1.0321 B(  7-C , 49-H ) :   0.9397
B(  7-C , 50-H ) :   0.9221 B(  8-C , 20-C ) :   1.0582 B(  8-C , 27-O ) :   0.7881
B(  8-C , 33-C ) :   1.0568 B(  8-C , 36-C ) :   1.0475 B(  9-C , 58-H ) :   0.9288
B( 10-C , 12-C ) :   1.0079 B( 10-C , 31-N ) :   0.9567 B( 10-C , 60-H ) :   0.9115
B( 11-C , 23-N ) :   0.9679 B( 11-C , 62-H ) :   0.9055 B( 12-C , 13-C ) :   1.0297
B( 12-C , 53-H ) :   0.9344 B( 12-C , 54-H ) :   0.9201 B( 13-C , 34-C ) :   1.0438
B( 13-C , 35-C ) :   1.0554 B( 13-C , 68-H ) :   0.9440 B( 14-C , 15-C ) :   1.0213
B( 14-C , 18-C ) :   1.0214 B( 14-C , 70-H ) :   0.9296 B( 15-C , 22-N ) :   0.9606
B( 15-C , 56-H ) :   0.9280 B( 15-C , 64-H ) :   0.9338 B( 16-C , 25-O ) :   0.7993
B( 16-C , 26-C ) :   1.0535 B( 16-C , 37-C ) :   1.0588 B( 16-C , 38-C ) :   1.0490
B( 17-C , 19-C ) :   1.0537 B( 17-C , 21-C ) :   1.0443 B( 17-C , 76-H ) :   0.9410
B( 18-C , 30-N ) :   0.9510 B( 18-C , 66-H ) :   0.9384 B( 18-C , 72-H ) :   0.9213
B( 19-C , 74-H ) :   0.9556 B( 19-C , 78-H ) :   0.9580 B( 19-C , 80-H ) :   0.9484
B( 20-C , 39-H ) :   0.9505 B( 20-C , 40-H ) :   0.9506 B( 20-C , 82-H ) :   0.9516
B( 21-C , 41-H ) :   0.9588 B( 21-C , 42-H ) :   0.9460 B( 21-C , 84-H ) :   0.9602
B( 23-N , 48-H ) :   0.8416 B( 26-C , 88-H ) :   0.9384 B( 26-C , 89-H ) :   0.9474
B( 26-C , 90-H ) :   0.9470 B( 31-N , 43-H ) :   0.8549 B( 33-C , 55-H ) :   0.9334
B( 33-C , 57-H ) :   0.9457 B( 33-C , 59-H ) :   0.9469 B( 34-C , 61-H ) :   0.9596
B( 34-C , 63-H ) :   0.9578 B( 34-C , 65-H ) :   0.9519 B( 35-C , 67-H ) :   0.9534
B( 35-C , 69-H ) :   0.9569 B( 35-C , 71-H ) :   0.9525 B( 36-C , 73-H ) :   0.9522
B( 36-C , 75-H ) :   0.9484 B( 36-C , 77-H ) :   0.9347 B( 37-C , 79-H ) :   0.9541
B( 37-C , 81-H ) :   0.9485 B( 37-C , 83-H ) :   0.9463 B( 38-C , 85-H ) :   0.9509
B( 38-C , 86-H ) :   0.9491 B( 38-C , 87-H ) :   0.9421

FINAL SINGLE POINT ENERGY     -1805.194389995828

DIPOLE MOMENT
-------------
                                X             Y             Z
Electronic contribution:     -8.10230      -7.18686      -5.89664
Nuclear contribution   :      7.82891       6.57401       5.13806
                        -----------------------------------------
Total Dipole Moment    :     -0.27339      -0.61285      -0.75858
                        -----------------------------------------
Magnitude (a.u.)       :      1.01280
Magnitude (Debye)      :      2.57434

Rotational constants in cm-1:     0.004890     0.001515     0.001442
Rotational constants in MHz :   146.613010    45.408193    43.228032

                             ****ORCA TERMINATED NORMALLY****
TOTAL RUN TIME: 0 days 0 hours 14 minutes 9 seconds 321 msec
