                         Program Version 4.2.1 -  RELEASE  -
|  1> # ================================================================
|  2> # Orca input file made in Gabedit
|  3> # ================================================================
|  4> ! CAM-B3LYP 6-31G*
|  5>
|  6> %geom scan
|  7>
|  8> D 24 12 2 31 = -180, 180, 18
|  9> D 32 11 3 23 = -180, 180 , 18
| 10>
| 11> # Scan the  dihedral from -180 to 180 in 18 steps
| 12>
| 13> end
| 14> end
| 15> * xyz 0   1
| 16> C          5.40600        5.09700        6.71000
| 17> C          8.11400        2.78900        8.59600
| 18> C          7.49600        6.18800        6.17300
| 19> C          8.84600        2.52200       12.01400
| 20> C          4.90000        2.81900        5.83700
| 21> C          8.60700        8.38400        4.37800
| 22> C          5.65800        3.03500        8.19800
| 23> C          8.05200        5.01500        9.70200
| 24> C          8.49800       10.72300        3.66100
| 25> C          4.89300        3.70300        7.08000
| 26> C          8.82700        6.19400        5.39400
| 27> C          7.98100        3.50400        9.93400
| 28> C          9.87200        5.40600        6.19300
| 29> C         11.15100        5.08300        5.42700
| 30> C          6.35400        2.68400        5.42400
| 31> C          6.91300        4.04400        5.03300
| 32> C         10.10800        1.44200       13.84100
| 33> C          7.70700        5.88000       10.89900
| 34> C          7.15100        2.00000        6.52500
| 35> C          6.25800        5.78100       11.26600
| 36> C          9.37600       11.89700        4.01500
| 37> C          8.08000        7.32300       10.56200
| 38> N          6.71900        5.06200        6.07000
| 39> N          9.06100        3.06300       10.81100
| 40> O          7.67100        8.04200        3.70800
| 41> O         10.00000        2.03000       12.50000
| 42> C          9.19900        0.25000       13.97200
| 43> O          9.15400        9.61200        4.38500
| 44> O          7.17700        7.11900        6.88800
| 45> O          9.22500        2.38900        8.24200
| 46> N          7.03800        2.68800        7.80800
| 47> N          9.28200        7.56600        5.20300
| 48> O          7.78600        2.49900       12.58900
| 49> C          7.11200       10.92800        4.16300
| 50> C         12.12200        4.38800        6.36800
| 51> C         10.90000        4.20000        4.25700
| 52> C          8.56900       10.44900        2.17700
| 53> C         11.50800        1.01200       13.92200
| 54> C          9.89700        2.56100       14.83900
| 55> H          9.08100       12.67300        3.53300
| 56> H         10.28500       11.69900        3.77800
| 57> H          7.83500        7.89600       11.29100
| 58> H          7.61400        7.59700        9.76900
| 59> H          9.98000        7.85000        5.61800
| 60> H          4.52100        1.94800        6.03700
| 61> H          4.38100        3.22700        5.12600
| 62> H          5.68500        3.63000        8.96500
| 63> H          5.19100        2.22800        8.46600
| 64> H          9.87200        3.15600       10.54000
| 65> H          8.95100        5.23600        9.41300
| 66> H          7.45000        5.24100        8.97700
| 67> H          4.77100        5.52000        6.11000
| 68> H          5.45900        5.63900        7.51400
| 69> H         10.10600        5.91700        6.98400
| 70> H          9.47100        4.57500        6.49100
| 71> H          6.57300       10.16800        3.93100
| 72> H          7.86100        3.95500        4.85000
| 73> H          6.74000       11.71700        3.76200
| 74> H          3.96100        3.79800        7.37200
| 75> H          7.12800       11.03000        5.11700
| 76> H          8.69600        5.77000        4.52000
| 77> H         12.13500        4.84700        7.21100
| 78> H          7.11800        3.27800       10.34000
| 79> H         13.00200        4.39800        5.98500
| 80> H          6.48100        4.34000        4.21500
| 81> H         11.84200        3.48000        6.50300
| 82> H          6.83600        1.08800        6.62500
| 83> H         10.49300        3.38400        4.55300
| 84> H         11.55500        5.91900        5.11500
| 85> H         11.73200        4.00400        3.82000
| 86> H          6.38600        2.10900        4.63100
| 87> H         10.31300        4.64600        3.64100
| 88> H          8.08500        1.96400        6.26500
| 89> H          9.48600       10.34800        1.91300
| 90> H          5.72000        6.05700       10.52100
| 91> H          8.17800       11.18300        1.69700
| 92> H          8.24500        5.58700       11.66400
| 93> H          8.08700        9.64300        1.97700
| 94> H          6.07900        6.35100       12.01800
| 95> H         11.60700        0.16400       13.48400
| 96> H          6.04700        4.87400       11.49500
| 97> H         11.76400        0.92900       14.84300
| 98> H          9.32000       12.06500        4.95900
| 99> H         12.06800        1.66200       13.49100
|100> H          9.02700        7.38200       10.41300
|101> H         10.39300        3.33500       14.56200
|102> H         10.20200        2.27900       15.70500
|103> H          8.96300        2.77900       14.88400
|104> H          8.29000        0.54800       14.05700
|105> H          9.44300       -0.25500       14.75200
|106> H          9.28200       -0.30400       13.19300
|107> *
|108>
|109>                          ****END OF INPUT****

CARTESIAN COORDINATES (ANGSTROEM)
---------------------------------
  C      5.406000    5.097000    6.710000
  C      8.114000    2.789000    8.596000
  C      7.496000    6.188000    6.173000
  C      8.846000    2.522000   12.014000
  C      4.900000    2.819000    5.837000
  C      8.607000    8.384000    4.378000
  C      5.658000    3.035000    8.198000
  C      8.052000    5.015000    9.702000
  C      8.498000   10.723000    3.661000
  C      4.893000    3.703000    7.080000
  C      8.827000    6.194000    5.394000
  C      7.981000    3.504000    9.934000
  C      9.872000    5.406000    6.193000
  C     11.151000    5.083000    5.427000
  C      6.354000    2.684000    5.424000
  C      6.913000    4.044000    5.033000
  C     10.108000    1.442000   13.841000
  C      7.707000    5.880000   10.899000
  C      7.151000    2.000000    6.525000
  C      6.258000    5.781000   11.266000
  C      9.376000   11.897000    4.015000
  C      8.080000    7.323000   10.562000
  N      6.719000    5.062000    6.070000
  N      9.061000    3.063000   10.811000
  O      7.671000    8.042000    3.708000
  O     10.000000    2.030000   12.500000
  C      9.199000    0.250000   13.972000
  O      9.154000    9.612000    4.385000
  O      7.177000    7.119000    6.888000
  O      9.225000    2.389000    8.242000
  N      7.038000    2.688000    7.808000
  N      9.282000    7.566000    5.203000
  O      7.786000    2.499000   12.589000
  C      7.112000   10.928000    4.163000
  C     12.122000    4.388000    6.368000
  C     10.900000    4.200000    4.257000
  C      8.569000   10.449000    2.177000
  C     11.508000    1.012000   13.922000
  C      9.897000    2.561000   14.839000
  H      9.081000   12.673000    3.533000
  H     10.285000   11.699000    3.778000
  H      7.835000    7.896000   11.291000
  H      7.614000    7.597000    9.769000
  H      9.980000    7.850000    5.618000
  H      4.521000    1.948000    6.037000
  H      4.381000    3.227000    5.126000
  H      5.685000    3.630000    8.965000
  H      5.191000    2.228000    8.466000
  H      9.872000    3.156000   10.540000
  H      8.951000    5.236000    9.413000
  H      7.450000    5.241000    8.977000
  H      4.771000    5.520000    6.110000
  H      5.459000    5.639000    7.514000
  H     10.106000    5.917000    6.984000
  H      9.471000    4.575000    6.491000
  H      6.573000   10.168000    3.931000
  H      7.861000    3.955000    4.850000
  H      6.740000   11.717000    3.762000
  H      3.961000    3.798000    7.372000
  H      7.128000   11.030000    5.117000
  H      8.696000    5.770000    4.520000
  H     12.135000    4.847000    7.211000
  H      7.118000    3.278000   10.340000
  H     13.002000    4.398000    5.985000
  H      6.481000    4.340000    4.215000
  H     11.842000    3.480000    6.503000
  H      6.836000    1.088000    6.625000
  H     10.493000    3.384000    4.553000
  H     11.555000    5.919000    5.115000
  H     11.732000    4.004000    3.820000
  H      6.386000    2.109000    4.631000
  H     10.313000    4.646000    3.641000
  H      8.085000    1.964000    6.265000
  H      9.486000   10.348000    1.913000
  H      5.720000    6.057000   10.521000
  H      8.178000   11.183000    1.697000
  H      8.245000    5.587000   11.664000
  H      8.087000    9.643000    1.977000
  H      6.079000    6.351000   12.018000
  H     11.607000    0.164000   13.484000
  H      6.047000    4.874000   11.495000
  H     11.764000    0.929000   14.843000
  H      9.320000   12.065000    4.959000
  H     12.068000    1.662000   13.491000
  H      9.027000    7.382000   10.413000
  H     10.393000    3.335000   14.562000
  H     10.202000    2.279000   15.705000
  H      8.963000    2.779000   14.884000
  H      8.290000    0.548000   14.057000
  H      9.443000   -0.255000   14.752000
  H      9.282000   -0.304000   13.193000

 Total Charge           Charge          ....    0
 Multiplicity           Mult            ....    1
 Number of Electrons    NEL             ....  302
 Basis Dimension        Dim             ....  650

ORBITAL ENERGIES
----------------

  NO   OCC          E(Eh)            E(eV)
   0   2.0000     -19.228262      -523.2276
   1   2.0000     -19.225976      -523.1654
   2   2.0000     -19.173024      -521.7245
   3   2.0000     -19.171820      -521.6918
   4   2.0000     -19.170725      -521.6620
   5   2.0000     -19.167897      -521.5850
   6   2.0000     -14.431424      -392.6990
   7   2.0000     -14.422662      -392.4606
   8   2.0000     -14.397959      -391.7884
   9   2.0000     -14.394820      -391.7030
  10   2.0000     -10.385611      -282.6068
  11   2.0000     -10.385459      -282.6027
  12   2.0000     -10.348023      -281.5840
  13   2.0000     -10.345700      -281.5208
  14   2.0000     -10.301807      -280.3264
  15   2.0000     -10.300086      -280.2796
  16   2.0000     -10.282868      -279.8111
  17   2.0000     -10.280098      -279.7357
  18   2.0000     -10.274712      -279.5891
  19   2.0000     -10.269112      -279.4367
  20   2.0000     -10.262525      -279.2575
  21   2.0000     -10.259081      -279.1638
  22   2.0000     -10.257273      -279.1146
  23   2.0000     -10.257048      -279.1085
  24   2.0000     -10.233975      -278.4806
  25   2.0000     -10.230714      -278.3919
  26   2.0000     -10.223053      -278.1834
  27   2.0000     -10.219533      -278.0876
  28   2.0000     -10.212581      -277.8984
  29   2.0000     -10.190762      -277.3047
  30   2.0000     -10.189356      -277.2665
  31   2.0000     -10.185798      -277.1697
  32   2.0000     -10.185632      -277.1651
  33   2.0000     -10.185459      -277.1604
  34   2.0000     -10.185275      -277.1554
  35   2.0000     -10.183604      -277.1100
  36   2.0000     -10.181957      -277.0651
  37   2.0000     -10.179444      -276.9967
  38   2.0000     -10.176353      -276.9126
  39   2.0000      -1.169183       -31.8151
  40   2.0000      -1.167350       -31.7652
  41   2.0000      -1.113211       -30.2920
  42   2.0000      -1.110742       -30.2248
  43   2.0000      -1.075955       -29.2782
  44   2.0000      -1.073110       -29.2008
  45   2.0000      -1.035910       -28.1886
  46   2.0000      -1.016680       -27.6653
  47   2.0000      -1.014378       -27.6026
  48   2.0000      -1.009738       -27.4764
  49   2.0000      -0.923929       -25.1414
  50   2.0000      -0.918369       -24.9901
  51   2.0000      -0.912797       -24.8385
  52   2.0000      -0.904051       -24.6005
  53   2.0000      -0.900474       -24.5031
  54   2.0000      -0.899912       -24.4879
  55   2.0000      -0.847960       -23.0742
  56   2.0000      -0.844568       -22.9819
  57   2.0000      -0.822190       -22.3729
  58   2.0000      -0.803824       -21.8732
  59   2.0000      -0.801037       -21.7973
  60   2.0000      -0.799825       -21.7643
  61   2.0000      -0.799520       -21.7561
  62   2.0000      -0.798342       -21.7240
  63   2.0000      -0.791923       -21.5493
  64   2.0000      -0.787775       -21.4364
  65   2.0000      -0.783861       -21.3299
  66   2.0000      -0.750086       -20.4109
  67   2.0000      -0.747430       -20.3386
  68   2.0000      -0.723181       -19.6788
  69   2.0000      -0.709479       -19.3059
  70   2.0000      -0.702621       -19.1193
  71   2.0000      -0.676993       -18.4219
  72   2.0000      -0.669248       -18.2112
  73   2.0000      -0.665341       -18.1049
  74   2.0000      -0.650098       -17.6901
  75   2.0000      -0.648290       -17.6409
  76   2.0000      -0.646717       -17.5981
  77   2.0000      -0.628552       -17.1038
  78   2.0000      -0.595291       -16.1987
  79   2.0000      -0.590076       -16.0568
  80   2.0000      -0.587054       -15.9745
  81   2.0000      -0.581731       -15.8297
  82   2.0000      -0.576049       -15.6751
  83   2.0000      -0.570544       -15.5253
  84   2.0000      -0.565175       -15.3792
  85   2.0000      -0.556798       -15.1512
  86   2.0000      -0.551872       -15.0172
  87   2.0000      -0.551105       -14.9963
  88   2.0000      -0.548860       -14.9353
  89   2.0000      -0.544422       -14.8145
  90   2.0000      -0.541669       -14.7396
  91   2.0000      -0.541044       -14.7225
  92   2.0000      -0.535374       -14.5683
  93   2.0000      -0.533696       -14.5226
  94   2.0000      -0.530107       -14.4249
  95   2.0000      -0.524201       -14.2642
  96   2.0000      -0.520741       -14.1701
  97   2.0000      -0.518317       -14.1041
  98   2.0000      -0.515639       -14.0313
  99   2.0000      -0.514546       -14.0015
 100   2.0000      -0.510182       -13.8828
 101   2.0000      -0.508399       -13.8343
 102   2.0000      -0.503389       -13.6979
 103   2.0000      -0.497255       -13.5310
 104   2.0000      -0.494599       -13.4587
 105   2.0000      -0.486702       -13.2438
 106   2.0000      -0.483430       -13.1548
 107   2.0000      -0.481444       -13.1007
 108   2.0000      -0.479227       -13.0404
 109   2.0000      -0.478176       -13.0118
 110   2.0000      -0.476850       -12.9758
 111   2.0000      -0.474456       -12.9106
 112   2.0000      -0.470848       -12.8124
 113   2.0000      -0.468373       -12.7451
 114   2.0000      -0.467333       -12.7168
 115   2.0000      -0.461042       -12.5456
 116   2.0000      -0.460388       -12.5278
 117   2.0000      -0.458053       -12.4643
 118   2.0000      -0.452940       -12.3251
 119   2.0000      -0.451714       -12.2918
 120   2.0000      -0.450694       -12.2640
 121   2.0000      -0.448520       -12.2049
 122   2.0000      -0.446299       -12.1444
 123   2.0000      -0.436954       -11.8901
 124   2.0000      -0.430901       -11.7254
 125   2.0000      -0.426874       -11.6158
 126   2.0000      -0.416372       -11.3301
 127   2.0000      -0.413438       -11.2502
 128   2.0000      -0.413117       -11.2415
 129   2.0000      -0.410744       -11.1769
 130   2.0000      -0.409345       -11.1388
 131   2.0000      -0.402560       -10.9542
 132   2.0000      -0.398502       -10.8438
 133   2.0000      -0.392824       -10.6893
 134   2.0000      -0.390065       -10.6142
 135   2.0000      -0.386535       -10.5182
 136   2.0000      -0.385348       -10.4859
 137   2.0000      -0.382452       -10.4070
 138   2.0000      -0.381216       -10.3734
 139   2.0000      -0.378406       -10.2970
 140   2.0000      -0.373243       -10.1565
 141   2.0000      -0.339942        -9.2503
 142   2.0000      -0.337737        -9.1903
 143   2.0000      -0.321871        -8.7585
 144   2.0000      -0.320108        -8.7106
 145   2.0000      -0.317549        -8.6409
 146   2.0000      -0.315272        -8.5790
 147   2.0000      -0.307797        -8.3756
 148   2.0000      -0.300647        -8.1810
 149   2.0000      -0.298130        -8.1125
 150   2.0000      -0.280155        -7.6234
 151   0.0000       0.079816         2.1719
 152   0.0000       0.092510         2.5173
 153   0.0000       0.116925         3.1817
 154   0.0000       0.130822         3.5599
 155   0.0000       0.133011         3.6194

MULLIKEN ATOMIC CHARGES
-----------------------
   0 C :   -0.111799
   1 C :    0.526626
   2 C :    0.534312
   3 C :    0.684019
   4 C :   -0.272072
   5 C :    0.715361
   6 C :   -0.128968
   7 C :   -0.267083
   8 C :    0.220486
   9 C :   -0.158399
  10 C :   -0.048656
  11 C :   -0.078689
  12 C :   -0.312461
  13 C :   -0.127528
  14 C :   -0.163934
  15 C :   -0.121167
  16 C :    0.237028
  17 C :   -0.121688
  18 C :   -0.112384
  19 C :   -0.458947
  20 C :   -0.437701
  21 C :   -0.454859
  22 N :   -0.460592
  23 N :   -0.535146
  24 O :   -0.481131
  25 O :   -0.517548
  26 C :   -0.453395
  27 O :   -0.522975
  28 O :   -0.477183
  29 O :   -0.509578
  30 N :   -0.431449
  31 N :   -0.559686
  32 O :   -0.484871
  33 C :   -0.452119
  34 C :   -0.441880
  35 C :   -0.450128
  36 C :   -0.446404
  37 C :   -0.440909
  38 C :   -0.450989
  39 H :    0.149715
  40 H :    0.158692
  41 H :    0.145996
  42 H :    0.177713
  43 H :    0.308067
  44 H :    0.146313
  45 H :    0.152047
  46 H :    0.172628
  47 H :    0.166324
  48 H :    0.312141
  49 H :    0.141864
  50 H :    0.164713
  51 H :    0.163716
  52 H :    0.182112
  53 H :    0.156421
  54 H :    0.177754
  55 H :    0.190879
  56 H :    0.165935
  57 H :    0.147178
  58 H :    0.144037
  59 H :    0.163754
  60 H :    0.163244
  61 H :    0.145505
  62 H :    0.168844
  63 H :    0.149901
  64 H :    0.168514
  65 H :    0.171108
  66 H :    0.157971
  67 H :    0.153892
  68 H :    0.127416
  69 H :    0.154939
  70 H :    0.144218
  71 H :    0.155243
  72 H :    0.184350
  73 H :    0.150484
  74 H :    0.145905
  75 H :    0.145714
  76 H :    0.137198
  77 H :    0.188002
  78 H :    0.152861
  79 H :    0.155524
  80 H :    0.166543
  81 H :    0.151726
  82 H :    0.160436
  83 H :    0.165309
  84 H :    0.143270
  85 H :    0.157262
  86 H :    0.144991
  87 H :    0.180866
  88 H :    0.186262
  89 H :    0.148501
  90 H :    0.160487
Sum of atomic charges:    0.0000000

LOEWDIN ATOMIC CHARGES
----------------------
   0 C :   -0.168273
   1 C :    0.104387
   2 C :    0.112276
   3 C :    0.121123
   4 C :   -0.255082
   5 C :    0.129604
   6 C :   -0.169703
   7 C :   -0.251881
   8 C :    0.110965
   9 C :   -0.137741
  10 C :   -0.083800
  11 C :   -0.083384
  12 C :   -0.254159
  13 C :   -0.129843
  14 C :   -0.138408
  15 C :   -0.172845
  16 C :    0.104414
  17 C :   -0.124782
  18 C :   -0.167945
  19 C :   -0.406818
  20 C :   -0.396853
  21 C :   -0.403179
  22 N :   -0.089995
  23 N :   -0.179373
  24 O :   -0.284751
  25 O :   -0.172037
  26 C :   -0.405121
  27 O :   -0.174635
  28 O :   -0.273024
  29 O :   -0.309095
  30 N :   -0.064403
  31 N :   -0.191130
  32 O :   -0.295872
  33 C :   -0.406493
  34 C :   -0.398593
  35 C :   -0.403239
  36 C :   -0.406870
  37 C :   -0.396007
  38 C :   -0.404960
  39 H :    0.140270
  40 H :    0.141946
  41 H :    0.135044
  42 H :    0.145935
  43 H :    0.236400
  44 H :    0.134187
  45 H :    0.136541
  46 H :    0.145233
  47 H :    0.137859
  48 H :    0.239118
  49 H :    0.136659
  50 H :    0.139548
  51 H :    0.137161
  52 H :    0.148415
  53 H :    0.139412
  54 H :    0.145562
  55 H :    0.153615
  56 H :    0.141576
  57 H :    0.141880
  58 H :    0.142056
  59 H :    0.145456
  60 H :    0.141041
  61 H :    0.135268
  62 H :    0.148525
  63 H :    0.136931
  64 H :    0.137153
  65 H :    0.144701
  66 H :    0.136242
  67 H :    0.136321
  68 H :    0.123992
  69 H :    0.140826
  70 H :    0.141646
  71 H :    0.135021
  72 H :    0.151739
  73 H :    0.139452
  74 H :    0.132762
  75 H :    0.140076
  76 H :    0.128882
  77 H :    0.151925
  78 H :    0.140075
  79 H :    0.140694
  80 H :    0.139452
  81 H :    0.141780
  82 H :    0.142217
  83 H :    0.146298
  84 H :    0.134038
  85 H :    0.143156
  86 H :    0.138276
  87 H :    0.148687
  88 H :    0.150664
  89 H :    0.140792
  90 H :    0.145023

  Mayer bond orders larger than 0.100000
B(  0-C ,  9-C ) :   1.0197 B(  0-C , 22-N ) :   0.9533 B(  0-C , 51-H ) :   0.9374
B(  0-C , 52-H ) :   0.9235 B(  1-C , 11-C ) :   0.9433 B(  1-C , 29-O ) :   1.7939
B(  1-C , 30-N ) :   1.1625 B(  2-C , 10-C ) :   0.9245 B(  2-C , 22-N ) :   1.1089
B(  2-C , 28-O ) :   1.8421 B(  3-C , 23-N ) :   1.1495 B(  3-C , 25-O ) :   1.0495
B(  3-C , 32-O ) :   1.8338 B(  4-C ,  9-C ) :   1.0238 B(  4-C , 14-C ) :   1.0263
B(  4-C , 44-H ) :   0.9417 B(  4-C , 45-H ) :   0.9412 B(  5-C , 24-O ) :   1.8187
B(  5-C , 27-O ) :   1.0583 B(  5-C , 31-N ) :   1.1306 B(  6-C ,  9-C ) :   1.0227
B(  6-C , 30-N ) :   0.9561 B(  6-C , 46-H ) :   0.9274 B(  6-C , 47-H ) :   0.9348
B(  7-C , 11-C ) :   0.9983 B(  7-C , 17-C ) :   1.0321 B(  7-C , 49-H ) :   0.9397
B(  7-C , 50-H ) :   0.9221 B(  8-C , 20-C ) :   1.0582 B(  8-C , 27-O ) :   0.7882
B(  8-C , 33-C ) :   1.0568 B(  8-C , 36-C ) :   1.0475 B(  9-C , 58-H ) :   0.9288
B( 10-C , 12-C ) :   1.0079 B( 10-C , 31-N ) :   0.9567 B( 10-C , 60-H ) :   0.9115
B( 11-C , 23-N ) :   0.9679 B( 11-C , 62-H ) :   0.9055 B( 12-C , 13-C ) :   1.0297
B( 12-C , 53-H ) :   0.9344 B( 12-C , 54-H ) :   0.9201 B( 13-C , 34-C ) :   1.0438
B( 13-C , 35-C ) :   1.0554 B( 13-C , 68-H ) :   0.9441 B( 14-C , 15-C ) :   1.0213
B( 14-C , 18-C ) :   1.0214 B( 14-C , 70-H ) :   0.9296 B( 15-C , 22-N ) :   0.9606
B( 15-C , 56-H ) :   0.9280 B( 15-C , 64-H ) :   0.9338 B( 16-C , 25-O ) :   0.7993
B( 16-C , 26-C ) :   1.0535 B( 16-C , 37-C ) :   1.0588 B( 16-C , 38-C ) :   1.0490
B( 17-C , 19-C ) :   1.0537 B( 17-C , 21-C ) :   1.0443 B( 17-C , 76-H ) :   0.9410
B( 18-C , 30-N ) :   0.9510 B( 18-C , 66-H ) :   0.9384 B( 18-C , 72-H ) :   0.9213
B( 19-C , 74-H ) :   0.9556 B( 19-C , 78-H ) :   0.9580 B( 19-C , 80-H ) :   0.9484
B( 20-C , 39-H ) :   0.9505 B( 20-C , 40-H ) :   0.9506 B( 20-C , 82-H ) :   0.9516
B( 21-C , 41-H ) :   0.9588 B( 21-C , 42-H ) :   0.9460 B( 21-C , 84-H ) :   0.9602
B( 23-N , 48-H ) :   0.8416 B( 26-C , 88-H ) :   0.9384 B( 26-C , 89-H ) :   0.9474
B( 26-C , 90-H ) :   0.9470 B( 31-N , 43-H ) :   0.8549 B( 33-C , 55-H ) :   0.9334
B( 33-C , 57-H ) :   0.9457 B( 33-C , 59-H ) :   0.9469 B( 34-C , 61-H ) :   0.9596
B( 34-C , 63-H ) :   0.9578 B( 34-C , 65-H ) :   0.9519 B( 35-C , 67-H ) :   0.9534
B( 35-C , 69-H ) :   0.9569 B( 35-C , 71-H ) :   0.9525 B( 36-C , 73-H ) :   0.9522
B( 36-C , 75-H ) :   0.9484 B( 36-C , 77-H ) :   0.9347 B( 37-C , 79-H ) :   0.9541
B( 37-C , 81-H ) :   0.9485 B( 37-C , 83-H ) :   0.9463 B( 38-C , 85-H ) :   0.9509
B( 38-C , 86-H ) :   0.9491 B( 38-C , 87-H ) :   0.9421

FINAL SINGLE POINT ENERGY     -1805.194389884940

DIPOLE MOMENT
-------------
                                X             Y             Z
Electronic contribution:     -8.10191      -7.18667      -5.89654
Nuclear contribution   :      7.82891       6.57401       5.13806
                        -----------------------------------------
Total Dipole Moment    :     -0.27300      -0.61266      -0.75848
                        -----------------------------------------
Magnitude (a.u.)       :      1.01251
Magnitude (Debye)      :      2.57359

Rotational constants in cm-1:     0.004890     0.001515     0.001442
Rotational constants in MHz :   146.613010    45.408193    43.228032

                             ****ORCA TERMINATED NORMALLY****
TOTAL RUN TIME: 0 days 0 hours 14 minutes 56 seconds 170 msec
